<?xml version="1.0" encoding="UTF-8"?>

<!-- generated on 2026-04-24 14:39:17 by Eclipse SUMO GUI Version 1.12.0
<configuration xmlns:xsi="http://www.w3.org/2001/XMLSchema-instance" xsi:noNamespaceSchemaLocation="http://sumo.dlr.de/xsd/sumoConfiguration.xsd">

    <input>
        <net-file value="/root/omnet/taller3/map5.net.xml"/>
        <route-files value="/root/omnet/taller3/trafico_hora_pico.rou.xml"/>
        <additional-files value="/root/omnet/taller3/vtypes_reto.add.xml"/>
    </input>

    <output>
        <fcd-output value="/root/omnet/taller3/fcd_map5.xml"/>
        <tripinfo-output value="/root/omnet/taller3/tripinfo_map5.xml"/>
    </output>

    <time>
        <begin value="0"/>
        <end value="3600"/>
    </time>

    <processing>
        <ignore-junction-blocker value="10"/>
        <ignore-route-errors value="true"/>
        <time-to-teleport value="45"/>
    </processing>

    <emissions>
        <device.emissions.probability value="1"/>
    </emissions>

    <traci_server>
        <remote-port value="42997"/>
    </traci_server>

</configuration>
-->

<tripinfos xmlns:xsi="http://www.w3.org/2001/XMLSchema-instance" xsi:noNamespaceSchemaLocation="http://sumo.dlr.de/xsd/tripinfo_file.xsd">
    <tripinfo id="7" depart="10.00" departLane="47198291#0_0" departPos="5.30" departSpeed="0.00" departDelay="0.00" arrival="90.00" arrivalLane="-86134858#2_0" arrivalPos="83.14" arrivalSpeed="8.29" duration="80.00" routeLength="721.01" waitingTime="0.00" waitingCount="0" stopTime="0.00" timeLoss="10.30" rerouteNo="0" devices="tripinfo_7 emissions_7 fcd_7" vType="pickup" speedFactor="1.09" vaporized="">
        <emissions CO_abs="3076.274947" CO2_abs="178823.770999" HC_abs="18.139380" PMx_abs="2.857297" NOx_abs="71.523626" fuel_abs="76.869393" electricity_abs="0"/>
    </tripinfo>
    <tripinfo id="44" depart="66.00" departLane="-404961938#2_0" departPos="4.10" departSpeed="0.00" departDelay="0.00" arrival="90.00" arrivalLane="-475312979#0_0" arrivalPos="15.65" arrivalSpeed="12.62" duration="24.00" routeLength="256.42" waitingTime="0.00" waitingCount="0" stopTime="0.00" timeLoss="4.76" rerouteNo="0" devices="tripinfo_44 emissions_44 fcd_44" vType="auto_hatchback" speedFactor="1.17" vaporized="">
        <emissions CO_abs="1313.061052" CO2_abs="82826.411585" HC_abs="7.931043" PMx_abs="1.490491" NOx_abs="34.026257" fuel_abs="35.603525" electricity_abs="0"/>
    </tripinfo>
    <tripinfo id="24" depart="33.00" departLane="893427501#0_0" departPos="4.90" departSpeed="0.00" departDelay="0.00" arrival="123.00" arrivalLane="48537838#1_0" arrivalPos="16.27" arrivalSpeed="9.09" duration="90.00" routeLength="532.80" waitingTime="33.00" waitingCount="1" stopTime="0.00" timeLoss="47.93" rerouteNo="0" devices="tripinfo_24 emissions_24 fcd_24" vType="auto_suv" speedFactor="1.12" vaporized="">
        <emissions CO_abs="7587.132048" CO2_abs="237735.703942" HC_abs="40.148015" PMx_abs="4.895667" NOx_abs="101.997948" fuel_abs="102.194679" electricity_abs="0"/>
    </tripinfo>
    <tripinfo id="51" depart="77.00" departLane="563376160#1_0" departPos="4.10" departSpeed="0.00" departDelay="0.00" arrival="141.00" arrivalLane="48537860#1_0" arrivalPos="32.95" arrivalSpeed="13.50" duration="64.00" routeLength="642.24" waitingTime="0.00" waitingCount="0" stopTime="0.00" timeLoss="14.15" rerouteNo="0" devices="tripinfo_51 emissions_51 fcd_51" vType="auto_hatchback" speedFactor="1.02" vaporized="">
        <emissions CO_abs="3150.872163" CO2_abs="195640.308881" HC_abs="18.954664" PMx_abs="3.563843" NOx_abs="80.644910" fuel_abs="84.097360" electricity_abs="0"/>
    </tripinfo>
    <tripinfo id="23" depart="32.00" departLane="-893268805_0" departPos="4.10" departSpeed="0.00" departDelay="0.00" arrival="160.00" arrivalLane="552616904#1_1" arrivalPos="30.46" arrivalSpeed="8.62" duration="128.00" routeLength="895.59" waitingTime="38.00" waitingCount="1" stopTime="0.00" timeLoss="55.55" rerouteNo="0" devices="tripinfo_23 emissions_23 fcd_23" vType="auto_hatchback" speedFactor="1.15" vaporized="">
        <emissions CO_abs="9082.317017" CO2_abs="326663.939771" HC_abs="49.017679" PMx_abs="6.414250" NOx_abs="138.091130" fuel_abs="140.421303" electricity_abs="0"/>
    </tripinfo>
    <tripinfo id="6" depart="10.00" departLane="403181057#0_0" departPos="4.60" departSpeed="0.00" departDelay="0.00" arrival="162.00" arrivalLane="1180131815_0" arrivalPos="73.60" arrivalSpeed="12.95" duration="152.00" routeLength="1327.05" waitingTime="15.00" waitingCount="2" stopTime="0.00" timeLoss="42.44" rerouteNo="0" devices="tripinfo_6 emissions_6 fcd_6" vType="auto_sedan" speedFactor="1.01" vaporized="">
        <emissions CO_abs="7473.894805" CO2_abs="418874.615022" HC_abs="43.863683" PMx_abs="7.545512" NOx_abs="172.623452" fuel_abs="180.056895" electricity_abs="0"/>
    </tripinfo>
    <tripinfo id="57" depart="84.00" departLane="542393635#1_0" departPos="4.60" departSpeed="0.00" departDelay="0.00" arrival="169.00" arrivalLane="45393810#3_0" arrivalPos="52.46" arrivalSpeed="12.12" duration="85.00" routeLength="897.24" waitingTime="0.00" waitingCount="0" stopTime="0.00" timeLoss="10.80" rerouteNo="0" devices="tripinfo_57 emissions_57 fcd_57" vType="auto_sedan" speedFactor="0.88" vaporized="">
        <emissions CO_abs="3233.813530" CO2_abs="219048.472725" HC_abs="19.851666" PMx_abs="3.729825" NOx_abs="88.773447" fuel_abs="94.159655" electricity_abs="0"/>
    </tripinfo>
    <tripinfo id="13" depart="21.00" departLane="895455490#1_0" departPos="12.10" departSpeed="0.00" departDelay="0.00" arrival="172.00" arrivalLane="404105016#0_0" arrivalPos="48.27" arrivalSpeed="4.15" duration="151.00" routeLength="730.81" waitingTime="49.00" waitingCount="2" stopTime="0.00" timeLoss="73.97" rerouteNo="0" devices="tripinfo_13 emissions_13 fcd_13" vType="bus_urbano" speedFactor="1.00" vaporized="">
        <emissions CO_abs="2795.793465" CO2_abs="1332291.994917" HC_abs="612.820251" PMx_abs="290.116113" NOx_abs="11476.899969" fuel_abs="568.065361" electricity_abs="0"/>
    </tripinfo>
    <tripinfo id="60" depart="87.00" departLane="-552616912_0" departPos="4.90" departSpeed="0.00" departDelay="0.00" arrival="177.00" arrivalLane="61426878#1_0" arrivalPos="9.58" arrivalSpeed="7.34" duration="90.00" routeLength="815.89" waitingTime="0.00" waitingCount="0" stopTime="0.00" timeLoss="16.35" rerouteNo="0" devices="tripinfo_60 emissions_60 fcd_60" vType="auto_suv" speedFactor="0.96" vaporized="">
        <emissions CO_abs="3915.699570" CO2_abs="221816.847367" HC_abs="23.000246" PMx_abs="3.794798" NOx_abs="90.342086" fuel_abs="95.350149" electricity_abs="0"/>
    </tripinfo>
    <tripinfo id="39" depart="60.00" departLane="45393772#12_0" departPos="2.30" departSpeed="0.00" departDelay="0.00" arrival="178.00" arrivalLane="-208781831_0" arrivalPos="216.36" arrivalSpeed="8.42" duration="118.00" routeLength="754.01" waitingTime="33.00" waitingCount="2" stopTime="0.00" timeLoss="53.28" rerouteNo="0" devices="tripinfo_39 emissions_39 fcd_39" vType="moto_reparto" speedFactor="1.02" vaporized="">
        <emissions CO_abs="11524.580293" CO2_abs="241150.131264" HC_abs="47.821324" PMx_abs="14.783934" NOx_abs="54.529415" fuel_abs="103.673328" electricity_abs="0"/>
    </tripinfo>
    <tripinfo id="65" depart="96.00" departLane="81508874#0_0" departPos="2.20" departSpeed="0.00" departDelay="0.00" arrival="182.00" arrivalLane="304930424#0_0" arrivalPos="87.62" arrivalSpeed="8.40" duration="86.00" routeLength="982.93" waitingTime="0.00" waitingCount="0" stopTime="0.00" timeLoss="12.83" rerouteNo="0" devices="tripinfo_65 emissions_65 fcd_65" vType="moto_urbana" speedFactor="1.03" vaporized="">
        <emissions CO_abs="7345.615254" CO2_abs="261172.312771" HC_abs="34.941340" PMx_abs="12.147498" NOx_abs="57.664167" fuel_abs="112.279377" electricity_abs="0"/>
    </tripinfo>
    <tripinfo id="105" depart="137.00" departLane="-86484895_0" departPos="4.10" departSpeed="0.00" departDelay="0.00" arrival="190.00" arrivalLane="1228789766_0" arrivalPos="72.67" arrivalSpeed="13.08" duration="53.00" routeLength="537.41" waitingTime="0.00" waitingCount="0" stopTime="0.00" timeLoss="8.74" rerouteNo="0" devices="tripinfo_105 emissions_105 fcd_105" vType="auto_hatchback" speedFactor="1.04" vaporized="">
        <emissions CO_abs="2579.985473" CO2_abs="165291.748769" HC_abs="15.615208" PMx_abs="2.918389" NOx_abs="67.638571" fuel_abs="71.051877" electricity_abs="0"/>
    </tripinfo>
    <tripinfo id="86" depart="118.00" departLane="-48537836#1_0" departPos="2.20" departSpeed="0.00" departDelay="0.00" arrival="193.00" arrivalLane="48903074#1_0" arrivalPos="61.03" arrivalSpeed="11.89" duration="75.00" routeLength="534.47" waitingTime="3.00" waitingCount="1" stopTime="0.00" timeLoss="23.04" rerouteNo="0" devices="tripinfo_86 emissions_86 fcd_86" vType="moto_urbana" speedFactor="0.95" vaporized="">
        <emissions CO_abs="7110.304549" CO2_abs="193990.068026" HC_abs="31.601441" PMx_abs="10.541994" NOx_abs="42.547892" fuel_abs="83.398412" electricity_abs="0"/>
    </tripinfo>
    <tripinfo id="67" depart="101.00" departLane="50370776#0_0" departPos="4.60" departSpeed="0.00" departDelay="0.00" arrival="195.00" arrivalLane="48903075#1_0" arrivalPos="18.49" arrivalSpeed="13.86" duration="94.00" routeLength="515.71" waitingTime="44.00" waitingCount="2" stopTime="0.00" timeLoss="56.63" rerouteNo="0" devices="tripinfo_67 emissions_67 fcd_67" vType="auto_sedan" speedFactor="1.09" vaporized="">
        <emissions CO_abs="8789.671701" CO2_abs="274713.991473" HC_abs="46.512560" PMx_abs="5.750137" NOx_abs="118.432023" fuel_abs="118.090297" electricity_abs="0"/>
    </tripinfo>
    <tripinfo id="124" depart="161.00" departLane="402797116_0" departPos="4.60" departSpeed="0.00" departDelay="0.00" arrival="199.00" arrivalLane="48903063#2_0" arrivalPos="33.33" arrivalSpeed="13.66" duration="38.00" routeLength="402.34" waitingTime="0.00" waitingCount="0" stopTime="0.00" timeLoss="8.29" rerouteNo="0" devices="tripinfo_124 emissions_124 fcd_124" vType="auto_sedan" speedFactor="1.11" vaporized="">
        <emissions CO_abs="2375.599046" CO2_abs="154015.204453" HC_abs="14.462647" PMx_abs="2.848615" NOx_abs="63.855440" fuel_abs="66.204353" electricity_abs="0"/>
    </tripinfo>
    <tripinfo id="27" depart="38.00" departLane="48903067_0" departPos="2.20" departSpeed="0.00" departDelay="0.00" arrival="204.00" arrivalLane="40972480#1_0" arrivalPos="43.88" arrivalSpeed="13.31" duration="166.00" routeLength="1044.99" waitingTime="66.00" waitingCount="3" stopTime="0.00" timeLoss="91.61" rerouteNo="0" devices="tripinfo_27 emissions_27 fcd_27" vType="moto_urbana" speedFactor="1.02" vaporized="">
        <emissions CO_abs="19324.553982" CO2_abs="377827.007162" HC_abs="79.644662" PMx_abs="24.602413" NOx_abs="84.617439" fuel_abs="162.432625" electricity_abs="0"/>
    </tripinfo>
    <tripinfo id="29" depart="39.00" departLane="48537815#2_0" departPos="4.10" departSpeed="0.00" departDelay="0.00" arrival="212.00" arrivalLane="-402686085#1_0" arrivalPos="74.30" arrivalSpeed="13.61" duration="173.00" routeLength="1281.17" waitingTime="49.00" waitingCount="2" stopTime="0.00" timeLoss="80.07" rerouteNo="0" devices="tripinfo_29 emissions_29 fcd_29" vType="auto_hatchback" speedFactor="1.10" vaporized="">
        <emissions CO_abs="12634.212203" CO2_abs="487267.826370" HC_abs="69.014243" PMx_abs="9.577619" NOx_abs="205.671910" fuel_abs="209.458494" electricity_abs="0"/>
    </tripinfo>
    <tripinfo id="74" depart="107.00" departLane="40668089#4_0" departPos="2.20" departSpeed="0.00" departDelay="0.00" arrival="215.00" arrivalLane="895028863#1_0" arrivalPos="43.65" arrivalSpeed="12.30" duration="108.00" routeLength="852.61" waitingTime="0.00" waitingCount="0" stopTime="0.00" timeLoss="20.46" rerouteNo="0" devices="tripinfo_74 emissions_74 fcd_74" vType="moto_urbana" speedFactor="0.94" vaporized="">
        <emissions CO_abs="8021.351119" CO2_abs="239574.029953" HC_abs="35.772555" PMx_abs="11.700785" NOx_abs="54.192182" fuel_abs="102.994838" electricity_abs="0"/>
    </tripinfo>
    <tripinfo id="92" depart="127.00" departLane="402431111#1_0" departPos="12.10" departSpeed="0.00" departDelay="0.00" arrival="218.00" arrivalLane="45393796#0_1" arrivalPos="94.88" arrivalSpeed="10.60" duration="91.00" routeLength="622.98" waitingTime="10.00" waitingCount="1" stopTime="0.00" timeLoss="34.48" rerouteNo="0" devices="tripinfo_92 emissions_92 fcd_92" vType="bus_urbano" speedFactor="1.00" vaporized="">
        <emissions CO_abs="1988.448855" CO2_abs="1117815.018538" HC_abs="414.431859" PMx_abs="209.465553" NOx_abs="9036.122956" fuel_abs="476.679589" electricity_abs="0"/>
    </tripinfo>
    <tripinfo id="151" depart="185.00" departLane="893245580#1_0" departPos="4.60" departSpeed="0.00" departDelay="0.00" arrival="228.00" arrivalLane="-48537836#1_0" arrivalPos="69.56" arrivalSpeed="13.26" duration="43.00" routeLength="383.61" waitingTime="0.00" waitingCount="0" stopTime="0.00" timeLoss="9.20" rerouteNo="0" devices="tripinfo_151 emissions_151 fcd_151" vType="auto_sedan" speedFactor="1.06" vaporized="">
        <emissions CO_abs="2635.489516" CO2_abs="147711.810394" HC_abs="15.482334" PMx_abs="2.745791" NOx_abs="61.745287" fuel_abs="63.495043" electricity_abs="0"/>
    </tripinfo>
    <tripinfo id="0" depart="1.00" departLane="527997818#4_0" departPos="2.20" departSpeed="0.00" departDelay="0.00" arrival="229.00" arrivalLane="48903207_0" arrivalPos="91.48" arrivalSpeed="12.51" duration="228.00" routeLength="2048.42" waitingTime="43.00" waitingCount="1" stopTime="0.00" timeLoss="71.30" rerouteNo="0" devices="tripinfo_0 emissions_0 fcd_0" vType="moto_urbana" speedFactor="0.98" vaporized="">
        <emissions CO_abs="21518.766974" CO2_abs="570085.488955" HC_abs="94.224824" PMx_abs="30.561044" NOx_abs="127.659850" fuel_abs="245.084380" electricity_abs="0"/>
    </tripinfo>
    <tripinfo id="114" depart="152.00" departLane="86484927_0" departPos="4.60" departSpeed="0.00" departDelay="0.00" arrival="229.00" arrivalLane="-81508882_0" arrivalPos="114.44" arrivalSpeed="13.09" duration="77.00" routeLength="516.26" waitingTime="0.00" waitingCount="0" stopTime="0.00" timeLoss="12.79" rerouteNo="0" devices="tripinfo_114 emissions_114 fcd_114" vType="auto_sedan" speedFactor="1.03" vaporized="">
        <emissions CO_abs="3895.654116" CO2_abs="166241.921977" HC_abs="21.591138" PMx_abs="2.883276" NOx_abs="68.004667" fuel_abs="71.461479" electricity_abs="0"/>
    </tripinfo>
    <tripinfo id="149" depart="181.00" departLane="29223186#4_0" departPos="4.60" departSpeed="0.00" departDelay="0.00" arrival="229.00" arrivalLane="-29223186#3_0" arrivalPos="190.71" arrivalSpeed="8.52" duration="48.00" routeLength="389.49" waitingTime="0.00" waitingCount="0" stopTime="0.00" timeLoss="7.33" rerouteNo="0" devices="tripinfo_149 emissions_149 fcd_149" vType="auto_sedan" speedFactor="0.87" vaporized="">
        <emissions CO_abs="2195.776649" CO2_abs="114407.196854" HC_abs="12.643267" PMx_abs="1.898433" NOx_abs="46.551338" fuel_abs="49.179262" electricity_abs="0"/>
    </tripinfo>
    <tripinfo id="19" depart="27.00" departLane="398036731_0" departPos="4.60" departSpeed="0.00" departDelay="0.00" arrival="232.00" arrivalLane="-48963733_0" arrivalPos="83.02" arrivalSpeed="11.56" duration="205.00" routeLength="1543.32" waitingTime="45.00" waitingCount="3" stopTime="0.00" timeLoss="76.73" rerouteNo="0" devices="tripinfo_19 emissions_19 fcd_19" vType="auto_sedan" speedFactor="0.87" vaporized="">
        <emissions CO_abs="11020.173610" CO2_abs="484111.370957" HC_abs="61.523424" PMx_abs="8.968663" NOx_abs="201.432715" fuel_abs="208.101110" electricity_abs="0"/>
    </tripinfo>
    <tripinfo id="55" depart="83.00" departLane="-1239284339_0" departPos="12.10" departSpeed="0.00" departDelay="0.00" arrival="237.00" arrivalLane="-563376161#2_0" arrivalPos="81.17" arrivalSpeed="10.64" duration="154.00" routeLength="1049.72" waitingTime="30.00" waitingCount="1" stopTime="0.00" timeLoss="54.11" rerouteNo="0" devices="tripinfo_55 emissions_55 fcd_55" vType="bus_urbano" speedFactor="1.00" vaporized="">
        <emissions CO_abs="2827.510831" CO2_abs="1479616.020173" HC_abs="614.658662" PMx_abs="296.576376" NOx_abs="12271.068661" fuel_abs="630.943055" electricity_abs="0"/>
    </tripinfo>
    <tripinfo id="78" depart="109.00" departLane="392349033#2_0" departPos="4.10" departSpeed="0.00" departDelay="0.00" arrival="237.00" arrivalLane="542393509#0_0" arrivalPos="59.36" arrivalSpeed="13.79" duration="128.00" routeLength="745.45" waitingTime="46.00" waitingCount="2" stopTime="0.00" timeLoss="72.30" rerouteNo="0" devices="tripinfo_78 emissions_78 fcd_78" vType="auto_hatchback" speedFactor="1.06" vaporized="">
        <emissions CO_abs="10926.002503" CO2_abs="380284.662921" HC_abs="58.748765" PMx_abs="7.884080" NOx_abs="164.019676" fuel_abs="163.470569" electricity_abs="0"/>
    </tripinfo>
    <tripinfo id="9" depart="12.00" departLane="535363736#2_0" departPos="4.60" departSpeed="0.00" departDelay="0.00" arrival="239.00" arrivalLane="397464997#4_0" arrivalPos="45.94" arrivalSpeed="13.81" duration="227.00" routeLength="1514.50" waitingTime="92.00" waitingCount="2" stopTime="0.00" timeLoss="111.54" rerouteNo="0" devices="tripinfo_9 emissions_9 fcd_9" vType="auto_sedan" speedFactor="1.12" vaporized="">
        <emissions CO_abs="18062.177649" CO2_abs="542563.687349" HC_abs="94.979268" PMx_abs="10.987171" NOx_abs="230.825061" fuel_abs="233.231102" electricity_abs="0"/>
    </tripinfo>
    <tripinfo id="70" depart="105.00" departLane="553308455_0" departPos="4.10" departSpeed="0.00" departDelay="0.00" arrival="239.00" arrivalLane="398039040_0" arrivalPos="63.73" arrivalSpeed="13.10" duration="134.00" routeLength="997.86" waitingTime="45.00" waitingCount="2" stopTime="0.00" timeLoss="62.09" rerouteNo="0" devices="tripinfo_70 emissions_70 fcd_70" vType="auto_hatchback" speedFactor="1.08" vaporized="">
        <emissions CO_abs="9172.282715" CO2_abs="316292.515565" HC_abs="49.192089" PMx_abs="6.185957" NOx_abs="132.884398" fuel_abs="135.963427" electricity_abs="0"/>
    </tripinfo>
    <tripinfo id="34" depart="51.00" departLane="48903041_0" departPos="4.60" departSpeed="0.00" departDelay="0.00" arrival="240.00" arrivalLane="-160535588#2_0" arrivalPos="83.58" arrivalSpeed="13.72" duration="189.00" routeLength="1311.95" waitingTime="49.00" waitingCount="3" stopTime="0.00" timeLoss="80.08" rerouteNo="0" devices="tripinfo_34 emissions_34 fcd_34" vType="auto_sedan" speedFactor="1.04" vaporized="">
        <emissions CO_abs="12079.017428" CO2_abs="467753.871084" HC_abs="65.954810" PMx_abs="8.886260" NOx_abs="195.945084" fuel_abs="201.070538" electricity_abs="0"/>
    </tripinfo>
    <tripinfo id="96" depart="129.00" departLane="338566778#0_0" departPos="12.10" departSpeed="0.00" departDelay="0.00" arrival="245.00" arrivalLane="258715364#0_0" arrivalPos="165.83" arrivalSpeed="10.59" duration="116.00" routeLength="712.88" waitingTime="23.00" waitingCount="1" stopTime="0.00" timeLoss="40.28" rerouteNo="0" devices="tripinfo_96 emissions_96 fcd_96" vType="bus_urbano" speedFactor="1.00" vaporized="">
        <emissions CO_abs="2235.038557" CO2_abs="1127432.060742" HC_abs="490.366404" PMx_abs="233.606661" NOx_abs="9484.576448" fuel_abs="480.748752" electricity_abs="0"/>
    </tripinfo>
    <tripinfo id="103" depart="134.00" departLane="400016014_0" departPos="2.20" departSpeed="0.00" departDelay="0.00" arrival="246.00" arrivalLane="400908321_0" arrivalPos="73.58" arrivalSpeed="13.44" duration="112.00" routeLength="617.80" waitingTime="47.00" waitingCount="2" stopTime="0.00" timeLoss="66.02" rerouteNo="0" devices="tripinfo_103 emissions_103 fcd_103" vType="moto_urbana" speedFactor="0.98" vaporized="">
        <emissions CO_abs="15202.573806" CO2_abs="289360.951277" HC_abs="62.554635" PMx_abs="19.401969" NOx_abs="64.276576" fuel_abs="124.400360" electricity_abs="0"/>
    </tripinfo>
    <tripinfo id="8" depart="11.00" departLane="751431204#2_0" departPos="4.90" departSpeed="0.00" departDelay="0.00" arrival="250.00" arrivalLane="45393787#2_1" arrivalPos="68.08" arrivalSpeed="12.35" duration="239.00" routeLength="2060.57" waitingTime="41.00" waitingCount="2" stopTime="0.00" timeLoss="77.55" rerouteNo="0" devices="tripinfo_8 emissions_8 fcd_8" vType="auto_suv" speedFactor="0.92" vaporized="">
        <emissions CO_abs="12555.379430" CO2_abs="614208.361979" HC_abs="71.543513" PMx_abs="10.971357" NOx_abs="251.855814" fuel_abs="264.024384" electricity_abs="0"/>
    </tripinfo>
    <tripinfo id="99" depart="131.00" departLane="895035173#2_0" departPos="4.10" departSpeed="0.00" departDelay="0.00" arrival="252.00" arrivalLane="45393817#3_0" arrivalPos="47.14" arrivalSpeed="13.32" duration="121.00" routeLength="1358.72" waitingTime="0.00" waitingCount="0" stopTime="0.00" timeLoss="22.87" rerouteNo="0" devices="tripinfo_99 emissions_99 fcd_99" vType="auto_hatchback" speedFactor="1.18" vaporized="">
        <emissions CO_abs="5809.640273" CO2_abs="390178.182722" HC_abs="35.690705" PMx_abs="7.176257" NOx_abs="161.319904" fuel_abs="167.720319" electricity_abs="0"/>
    </tripinfo>
    <tripinfo id="158" depart="188.00" departLane="-45393763#0_0" departPos="5.30" departSpeed="0.00" departDelay="0.00" arrival="255.00" arrivalLane="61390453_0" arrivalPos="43.02" arrivalSpeed="13.50" duration="67.00" routeLength="552.03" waitingTime="11.00" waitingCount="1" stopTime="0.00" timeLoss="26.46" rerouteNo="0" devices="tripinfo_158 emissions_158 fcd_158" vType="pickup" speedFactor="1.03" vaporized="">
        <emissions CO_abs="4096.376197" CO2_abs="206643.637152" HC_abs="23.530644" PMx_abs="3.912749" NOx_abs="86.454310" fuel_abs="88.827618" electricity_abs="0"/>
    </tripinfo>
    <tripinfo id="11" depart="14.00" departLane="-895035173#0_0" departPos="2.30" departSpeed="0.00" departDelay="0.00" arrival="259.00" arrivalLane="427451695#4_0" arrivalPos="42.67" arrivalSpeed="6.20" duration="245.00" routeLength="1627.51" waitingTime="85.00" waitingCount="2" stopTime="0.00" timeLoss="114.27" rerouteNo="0" devices="tripinfo_11 emissions_11 fcd_11" vType="moto_reparto" speedFactor="0.93" vaporized="">
        <emissions CO_abs="26761.599966" CO2_abs="535543.127349" HC_abs="110.577779" PMx_abs="34.202864" NOx_abs="120.302100" fuel_abs="230.236792" electricity_abs="0"/>
    </tripinfo>
    <tripinfo id="15" depart="22.00" departLane="325042057#2_0" departPos="5.30" departSpeed="0.00" departDelay="0.00" arrival="259.00" arrivalLane="400679084#3_0" arrivalPos="106.48" arrivalSpeed="13.68" duration="237.00" routeLength="2080.98" waitingTime="32.00" waitingCount="2" stopTime="0.00" timeLoss="78.24" rerouteNo="0" devices="tripinfo_15 emissions_15 fcd_15" vType="pickup" speedFactor="1.02" vaporized="">
        <emissions CO_abs="13867.803770" CO2_abs="673869.091320" HC_abs="78.950767" PMx_abs="12.379636" NOx_abs="278.811928" fuel_abs="289.669743" electricity_abs="0"/>
    </tripinfo>
    <tripinfo id="75" depart="107.00" departLane="-320862698#3_0" departPos="4.10" departSpeed="0.00" departDelay="0.00" arrival="260.00" arrivalLane="402792948#0_1" arrivalPos="26.21" arrivalSpeed="11.39" duration="153.00" routeLength="1073.57" waitingTime="43.00" waitingCount="1" stopTime="0.00" timeLoss="60.02" rerouteNo="0" devices="tripinfo_75 emissions_75 fcd_75" vType="auto_hatchback" speedFactor="0.83" vaporized="">
        <emissions CO_abs="10314.400471" CO2_abs="360864.212167" HC_abs="55.388827" PMx_abs="6.848475" NOx_abs="151.225988" fuel_abs="155.123378" electricity_abs="0"/>
    </tripinfo>
    <tripinfo id="88" depart="118.00" departLane="242069217#1_0" departPos="4.60" departSpeed="0.00" departDelay="0.00" arrival="260.00" arrivalLane="-48203231#5_0" arrivalPos="50.96" arrivalSpeed="13.33" duration="142.00" routeLength="1092.77" waitingTime="46.00" waitingCount="1" stopTime="0.00" timeLoss="60.32" rerouteNo="0" devices="tripinfo_88 emissions_88 fcd_88" vType="auto_sedan" speedFactor="1.01" vaporized="">
        <emissions CO_abs="9783.775691" CO2_abs="332258.527124" HC_abs="52.320827" PMx_abs="6.474406" NOx_abs="139.414808" fuel_abs="142.826836" electricity_abs="0"/>
    </tripinfo>
    <tripinfo id="82" depart="115.00" departLane="400015851#0_0" departPos="4.90" departSpeed="0.00" departDelay="0.00" arrival="262.00" arrivalLane="48903014#0_0" arrivalPos="72.25" arrivalSpeed="12.92" duration="147.00" routeLength="988.22" waitingTime="47.00" waitingCount="2" stopTime="0.00" timeLoss="75.44" rerouteNo="0" devices="tripinfo_82 emissions_82 fcd_82" vType="auto_suv" speedFactor="1.10" vaporized="">
        <emissions CO_abs="11261.022453" CO2_abs="400337.465105" HC_abs="60.695578" PMx_abs="7.915093" NOx_abs="169.274716" fuel_abs="172.091017" electricity_abs="0"/>
    </tripinfo>
    <tripinfo id="171" depart="207.00" departLane="-404093308#1_0" departPos="12.10" departSpeed="0.00" departDelay="0.00" arrival="262.00" arrivalLane="61426880#8_0" arrivalPos="35.36" arrivalSpeed="7.89" duration="55.00" routeLength="383.19" waitingTime="0.00" waitingCount="0" stopTime="0.00" timeLoss="8.07" rerouteNo="0" devices="tripinfo_171 emissions_171 fcd_171" vType="bus_urbano" speedFactor="1.00" vaporized="">
        <emissions CO_abs="1012.229882" CO2_abs="543579.988556" HC_abs="219.631799" PMx_abs="106.513280" NOx_abs="4462.548279" fuel_abs="231.801290" electricity_abs="0"/>
    </tripinfo>
    <tripinfo id="117" depart="154.00" departLane="48903016#0_0" departPos="4.60" departSpeed="0.00" departDelay="0.00" arrival="269.00" arrivalLane="42140283#1_0" arrivalPos="12.20" arrivalSpeed="13.43" duration="115.00" routeLength="554.12" waitingTime="58.00" waitingCount="2" stopTime="0.00" timeLoss="73.56" rerouteNo="0" devices="tripinfo_117 emissions_117 fcd_117" vType="auto_sedan" speedFactor="1.03" vaporized="">
        <emissions CO_abs="10898.022903" CO2_abs="298379.856815" HC_abs="56.661321" PMx_abs="6.417112" NOx_abs="129.901170" fuel_abs="128.264333" electricity_abs="0"/>
    </tripinfo>
    <tripinfo id="17" depart="25.00" departLane="-48537813#0_0" departPos="4.90" departSpeed="0.00" departDelay="0.00" arrival="280.00" arrivalLane="160535588#5_0" arrivalPos="86.92" arrivalSpeed="12.30" duration="255.00" routeLength="1903.93" waitingTime="56.00" waitingCount="2" stopTime="0.00" timeLoss="83.32" rerouteNo="0" devices="tripinfo_17 emissions_17 fcd_17" vType="auto_suv" speedFactor="0.89" vaporized="">
        <emissions CO_abs="14530.438237" CO2_abs="566548.678295" HC_abs="79.333352" PMx_abs="10.197643" NOx_abs="233.680788" fuel_abs="243.539647" electricity_abs="0"/>
    </tripinfo>
    <tripinfo id="94" depart="127.00" departLane="305047842#0_0" departPos="4.60" departSpeed="0.00" departDelay="0.00" arrival="283.00" arrivalLane="-45429554#0_0" arrivalPos="57.57" arrivalSpeed="12.75" duration="156.00" routeLength="1447.89" waitingTime="16.00" waitingCount="1" stopTime="0.00" timeLoss="49.96" rerouteNo="0" devices="tripinfo_94 emissions_94 fcd_94" vType="auto_sedan" speedFactor="1.25" vaporized="">
        <emissions CO_abs="7986.973773" CO2_abs="414113.753765" HC_abs="46.072491" PMx_abs="7.571363" NOx_abs="171.224598" fuel_abs="178.010751" electricity_abs="0"/>
    </tripinfo>
    <tripinfo id="68" depart="102.00" departLane="397312898#1_0" departPos="5.30" departSpeed="0.00" departDelay="0.00" arrival="284.00" arrivalLane="-45388030#5_0" arrivalPos="16.91" arrivalSpeed="6.78" duration="182.00" routeLength="1198.80" waitingTime="54.00" waitingCount="2" stopTime="0.00" timeLoss="80.62" rerouteNo="0" devices="tripinfo_68 emissions_68 fcd_68" vType="pickup" speedFactor="0.90" vaporized="">
        <emissions CO_abs="12663.463850" CO2_abs="439065.652233" HC_abs="67.878781" PMx_abs="8.161581" NOx_abs="182.573090" fuel_abs="188.739937" electricity_abs="0"/>
    </tripinfo>
    <tripinfo id="1" depart="2.00" departLane="45393775#3_0" departPos="4.60" departSpeed="0.00" departDelay="0.00" arrival="285.00" arrivalLane="404961938#4_0" arrivalPos="21.07" arrivalSpeed="12.83" duration="283.00" routeLength="2370.96" waitingTime="63.00" waitingCount="4" stopTime="0.00" timeLoss="111.72" rerouteNo="0" devices="tripinfo_1 emissions_1 fcd_1" vType="auto_sedan" speedFactor="1.08" vaporized="">
        <emissions CO_abs="17300.855590" CO2_abs="769387.449594" HC_abs="96.909581" PMx_abs="14.635501" NOx_abs="321.099134" fuel_abs="330.729862" electricity_abs="0"/>
    </tripinfo>
    <tripinfo id="135" depart="171.00" departLane="542415586#1_0" departPos="4.60" departSpeed="0.00" departDelay="0.00" arrival="288.00" arrivalLane="389763215#0_0" arrivalPos="9.67" arrivalSpeed="9.14" duration="117.00" routeLength="1021.35" waitingTime="15.00" waitingCount="2" stopTime="0.00" timeLoss="34.43" rerouteNo="0" devices="tripinfo_135 emissions_135 fcd_135" vType="auto_sedan" speedFactor="0.92" vaporized="">
        <emissions CO_abs="4987.646669" CO2_abs="274742.304729" HC_abs="29.132404" PMx_abs="4.769554" NOx_abs="111.796298" fuel_abs="118.100745" electricity_abs="0"/>
    </tripinfo>
    <tripinfo id="71" depart="105.00" departLane="65089044#4_0" departPos="5.30" departSpeed="0.00" departDelay="0.00" arrival="289.00" arrivalLane="314641202#0_0" arrivalPos="122.70" arrivalSpeed="12.82" duration="184.00" routeLength="2072.39" waitingTime="0.00" waitingCount="0" stopTime="0.00" timeLoss="25.89" rerouteNo="0" devices="tripinfo_71 emissions_71 fcd_71" vType="pickup" speedFactor="0.98" vaporized="">
        <emissions CO_abs="6647.564230" CO2_abs="488744.239503" HC_abs="41.677518" PMx_abs="8.066325" NOx_abs="195.472625" fuel_abs="210.090436" electricity_abs="0"/>
    </tripinfo>